 Gaussian 09, Revision A.02,
 Gaussian 09:  AM64L-G09RevA.02 11-Jun-2009

 ------------------------------------------------
 #n B3LYP/6-31G(d) Opt Pop=ESP scf=(direct,tight)
 ------------------------------------------------

 ----------
 Ethanediol
 ----------
 Symbolic Z-matrix:
 Charge =  0 Multiplicity = 1

 SCF Done:  E(RB3LYP) =  -230.233462992     A.U. after   11 cycles
 SCF Done:  E(RB3LYP) =  -230.235564371     A.U. after   11 cycles
 SCF Done:  E(RB3LYP) =  -230.235708792     A.U. after   10 cycles
 SCF Done:  E(RB3LYP) =  -230.235715105     A.U. after   11 cycles
 Optimization completed.
    -- Stationary point found.

                         Standard orientation:
 ---------------------------------------------------------------------
 Center     Atomic      Atomic             Coordinates (Angstroms)
 Number     Number       Type             X           Y           Z
 ---------------------------------------------------------------------
      1          8           0        1.779906   -0.263279   -0.000112
      2          6           0        0.576158    0.495731    0.000013
      3          6           0       -0.576167   -0.495652   -0.000041
      4          8           0       -1.779925    0.263216   -0.000168
      5          1           0        2.521879    0.358791    0.000929
      6          1           0        0.495927    1.139456   -0.889224
      7          1           0        0.495933    1.139255    0.889387
      8          1           0       -0.495863   -1.139256    0.889283
      9          1           0       -0.495803   -1.139341   -0.889303
     10          1           0       -2.521868   -0.358873    0.001337
 ---------------------------------------------------------------------

 The electronic state is 1-A.
 Alpha  occ. eigenvalues --  -19.14303 -19.14303 -10.22654 -10.22631  -1.02013
 Alpha  occ. eigenvalues --   -1.00925  -0.73382  -0.60187  -0.53180  -0.47731
 Alpha  occ. eigenvalues --   -0.47664  -0.40723  -0.39086  -0.35157  -0.32081
 Alpha  occ. eigenvalues --   -0.26748  -0.26503
 Alpha virt. eigenvalues --    0.06038   0.08755   0.13635   0.15387   0.16379
 Alpha virt. eigenvalues --    0.19722   0.21247   0.23568   0.26111   0.52667
 Alpha virt. eigenvalues --    0.57314   0.58261   0.59208   0.65399   0.71642

 Mulliken atomic charges:
              1
     1  O   -0.622731
     2  C   -0.038241
     3  C   -0.038227
     4  O   -0.622714
     5  H    0.396126
     6  H    0.132432
     7  H    0.132404
     8  H    0.132395
     9  H    0.132423
    10  H    0.396133
 Sum of Mulliken atomic charges =   0.00000

 Dipole moment (field-independent basis, Debye):
    X=             -0.0001    Y=              0.0001    Z=              0.0046  Tot=              0.0046
 Quadrupole moment (field-independent basis, Debye-Ang):
   XX=            -19.4624   YY=            -24.7801   ZZ=            -25.1425
   XY=              6.9961   XZ=             -0.0023   YZ=             -0.0004

 Normal termination of Gaussian 09 at Thu Jul  7 11:33:18 2016.
