 Gaussian 09, Revision A.02,
 Gaussian 09:  AM64L-G09RevA.02 11-Jun-2009

 ------------------------------------------------
 #n B3LYP/6-31G(d) Opt Pop=ESP scf=(direct,tight)
 ------------------------------------------------

 ----
 3DEG
 ----
 Symbolic Z-matrix:
 Charge =  0 Multiplicity = 1

 SCF Done:  E(RB3LYP) =  -1296.15567609     A.U. after   15 cycles
 SCF Done:  E(RB3LYP) =  -1296.18051703     A.U. after   12 cycles
 SCF Done:  E(RB3LYP) =  -1296.18867270     A.U. after   15 cycles
 SCF Done:  E(RB3LYP) =  -1296.18902035     A.U. after   15 cycles
 SCF Done:  E(RB3LYP) =  -1296.18908916     A.U. after   15 cycles
 SCF Done:  E(RB3LYP) =  -1296.18960975     A.U. after   15 cycles
 SCF Done:  E(RB3LYP) =  -1296.18968074     A.U. after   12 cycles
 SCF Done:  E(RB3LYP) =  -1296.18965592     A.U. after   15 cycles
 SCF Done:  E(RB3LYP) =  -1296.18981561     A.U. after   11 cycles
 SCF Done:  E(RB3LYP) =  -1296.18992629     A.U. after   12 cycles
 SCF Done:  E(RB3LYP) =  -1296.19167375     A.U. after   11 cycles
 SCF Done:  E(RB3LYP) =  -1296.19168384     A.U. after   12 cycles
 SCF Done:  E(RB3LYP) =  -1296.19167871     A.U. after   12 cycles
 SCF Done:  E(RB3LYP) =  -1296.19168385     A.U. after   12 cycles
 SCF Done:  E(RB3LYP) =  -1296.19168183     A.U. after   11 cycles
 SCF Done:  E(RB3LYP) =  -1296.19167957     A.U. after   10 cycles
 SCF Done:  E(RB3LYP) =  -1296.19167933     A.U. after    8 cycles
 SCF Done:  E(RB3LYP) =  -1296.19167930     A.U. after    7 cycles
 SCF Done:  E(RB3LYP) =  -1296.19168043     A.U. after    8 cycles
 SCF Done:  E(RB3LYP) =  -1296.19167968     A.U. after    8 cycles
 Optimization completed.
    -- Stationary point found.

                         Standard orientation:
 ---------------------------------------------------------------------
 Center     Atomic      Atomic             Coordinates (Angstroms)
 Number     Number       Type             X           Y           Z
 ---------------------------------------------------------------------
      1          6           0        0.408791   -0.934804   -0.526133
      2          6           0       -0.334921    0.359353   -0.223561
      3          6           0       -8.196195   -0.394617    0.031996
      4          8           0       -8.587824   -1.562945   -0.544440
      5          1           0       -7.852233   -1.954897   -1.042396
      6          8           0       -9.013648    0.333784    0.540572
      7          6           0       -6.727275   -0.081933   -0.004785
      8          6           0       -5.741548   -1.070376   -0.139216
      9          1           0       -6.012028   -2.122492   -0.193257
     10          6           0       -4.392743   -0.724444   -0.152007
     11          1           0       -3.632224   -1.490929   -0.245055
     12          6           0       -4.016207    0.619187   -0.033122
     13          6           0       -4.999185    1.607948    0.115722
     14          1           0       -4.686606    2.641872    0.215856
     15          6           0       -2.588154    1.054017   -0.045201
     16          8           0       -2.221186    2.203323    0.083740
     17          8           0       -1.734046    0.017672   -0.220430
     18          6           0       -6.343514    1.258835    0.138487
     19          1           0       -7.116199    2.009417    0.265819
     20          1           0       -0.139857    1.119485   -0.985361
     21          1           0       -0.050667    0.760176    0.752701
     22          6           0        2.531693   -0.679391    0.512921
     23          8           0        1.818487   -0.672376   -0.643774
     24          8           0        2.032652   -0.871661    1.603023
     25          6           0        3.983702   -0.429084    0.283431
     26          6           0        4.516370   -0.215838   -0.995717
     27          1           0        3.862226   -0.229858   -1.859694
     28          6           0        5.880328    0.013390   -1.151765
     29          1           0        6.297494    0.179480   -2.138451
     30          6           0        6.720555    0.030511   -0.029943
     31          6           0        6.186932   -0.182828    1.248641
     32          1           0        6.855279   -0.165004    2.102809
     33          6           0        8.186644    0.271498   -0.140408
     34          8           0        8.956413    0.295152    0.797987
     35          8           0        8.596318    0.467768   -1.418805
     36          1           0        9.559177    0.614384   -1.369282
     37          6           0        4.825742   -0.410937    1.404741
     38          1           0        4.393494   -0.577857    2.385460
     39          1           0        0.105799   -1.338248   -1.494629
     40          1           0        0.232936   -1.674183    0.258016
 ---------------------------------------------------------------------

 The electronic state is 1-A.
 Alpha  occ. eigenvalues --  -19.21276 -19.21259 -19.20831 -19.20420 -19.15401
 Alpha  occ. eigenvalues --  -19.15291 -19.14974 -19.14245 -10.33554 -10.33480
 Alpha  occ. eigenvalues --  -10.33407 -10.33025 -10.26437 -10.26130 -10.23312
 Alpha  occ. eigenvalues --  -10.23090 -10.22938 -10.22746 -10.22657 -10.22511
 Alpha  occ. eigenvalues --  -10.21923 -10.21842 -10.21816 -10.21750 -10.21497
 Alpha  occ. eigenvalues --  -10.21432  -1.12271  -1.11847  -1.11645  -1.10755
 Alpha  occ. eigenvalues --   -1.03414  -1.03068  -1.02601  -1.02495  -0.88952
 Alpha  occ. eigenvalues --   -0.88445  -0.81517  -0.80058  -0.78179  -0.77661
 Alpha  occ. eigenvalues --   -0.77056  -0.71433  -0.68434  -0.66364  -0.63780
 Alpha  occ. eigenvalues --   -0.63130  -0.62369  -0.61293  -0.59347  -0.58114
 Alpha  occ. eigenvalues --   -0.57112  -0.55857  -0.53587  -0.52807  -0.50373
 Alpha  occ. eigenvalues --   -0.50193  -0.49811  -0.48960  -0.48393  -0.47259
 Alpha  occ. eigenvalues --   -0.46729  -0.46391  -0.45944  -0.45899  -0.45736
 Alpha  occ. eigenvalues --   -0.45231  -0.45092  -0.44453  -0.44360  -0.43309
 Alpha  occ. eigenvalues --   -0.42259  -0.41425  -0.40675  -0.38921  -0.38606
 Alpha  occ. eigenvalues --   -0.38291  -0.37939  -0.37770  -0.37028  -0.36895
 Alpha  occ. eigenvalues --   -0.36093  -0.33041  -0.32498  -0.32374  -0.31737
 Alpha  occ. eigenvalues --   -0.29446  -0.29207  -0.28899  -0.28815  -0.28278
 Alpha  occ. eigenvalues --   -0.27833  -0.27564  -0.27556
 Alpha virt. eigenvalues --   -0.08222  -0.08148  -0.03229  -0.02317  -0.00041
 Alpha virt. eigenvalues --    0.00082   0.05065   0.06485   0.06731   0.07157
 Alpha virt. eigenvalues --    0.07424   0.09478   0.10688   0.10825   0.12514

 Mulliken atomic charges:
              1
     1  C   -0.067460
     2  C   -0.053534
     3  C    0.553712
     4  O   -0.570688
     5  H    0.412304
     6  O   -0.437100
     7  C    0.064197
     8  C   -0.205433
     9  H    0.141582
    10  C   -0.159750
    11  H    0.163406
    12  C    0.054537
    13  C   -0.155543
    14  H    0.176978
    15  C    0.608610
    16  O   -0.477819
    17  O   -0.490402
    18  C   -0.161028
    19  H    0.177703
    20  H    0.174550
    21  H    0.189449
    22  C    0.600656
    23  O   -0.483834
    24  O   -0.480873
    25  C    0.056937
    26  C   -0.164643
    27  H    0.163306
    28  C   -0.168445
    29  H    0.168584
    30  C    0.080090
    31  C   -0.165597
    32  H    0.174482
    33  C    0.544685
    34  O   -0.465560
    35  O   -0.580989
    36  H    0.415962
    37  C   -0.160078
    38  H    0.173365
    39  H    0.168251
    40  H    0.185432
 Sum of Mulliken atomic charges =   0.00000

 Dipole moment (field-independent basis, Debye):
    X=              3.5313    Y=             -2.3923    Z=             -4.3668  Tot=              6.1042
 Quadrupole moment (field-independent basis, Debye-Ang):
   XX=           -193.0049   YY=           -143.6072   ZZ=           -144.3342
   XY=             11.8092   XZ=             -3.2253   YZ=              1.9776

 1\1\GINC-R1I1N6\FOpt\RB3LYP\6-31G(d)\C18H14O8\VSC30783\15-Jul-2016\0\\
 #n B3LYP/6-31G(d) Opt Pop=ESP scf=(direct,tight)\\3DEG\\0,1\C,-5.82753
 876,1.8773776033,-0.0456153277\C,-4.9872339105,2.9371039454,0.65464790
 23\C,2.5859708924,3.0872315652,-1.5942299542\O,2.9165682325,1.94352186
 15,-2.2524655413\H,2.2251529182,1.2731534618,-2.1290494897\O,3.3971725
 011,3.97325996,-1.474430362\C,1.1902081784,3.1715811537,-1.0450651068\
 C,0.1239292155,2.4177679381,-1.556498096\H,0.2686179229,1.7537006551,-
 2.4056783956\C,-1.1537671031,2.5474093072,-1.018173798\H,-1.9785717729

 Normal termination of Gaussian 09 at Fri Jul 15 10:50:41 2016.
